lammps_out (written by ASE) 

32 	 atoms 
1  atom types
0.0      8.0800000000000001  xlo xhi
0.0      8.0800000000000001  ylo yhi
0.0      8.0800000000000001  zlo zhi


Atoms 

     1   1                       0                       0                       0
     2   1                       0                    2.02                    2.02
     3   1                    2.02                       0                    2.02
     4   1                    2.02                    2.02                       0
     5   1                       0                       0                    4.04
     6   1                       0                    2.02      6.0600000000000005
     7   1                    2.02                       0      6.0600000000000005
     8   1                    2.02                    2.02                    4.04
     9   1                       0                    4.04                       0
    10   1                       0      6.0600000000000005                    2.02
    11   1                    2.02                    4.04                    2.02
    12   1                    2.02      6.0600000000000005                       0
    13   1                       0                    4.04                    4.04
    14   1                       0      6.0600000000000005      6.0600000000000005
    15   1                    2.02                    4.04      6.0600000000000005
    16   1                    2.02      6.0600000000000005                    4.04
    17   1                    4.04                       0                       0
    18   1                    4.04                    2.02                    2.02
    19   1      6.0600000000000005                       0                    2.02
    20   1      6.0600000000000005                    2.02                       0
    21   1                    4.04                       0                    4.04
    22   1                    4.04                    2.02      6.0600000000000005
    23   1      6.0600000000000005                       0      6.0600000000000005
    24   1      6.0600000000000005                    2.02                    4.04
    25   1                    4.04                    4.04                       0
    26   1                    4.04      6.0600000000000005                    2.02
    27   1      6.0600000000000005                    4.04                    2.02
    28   1      6.0600000000000005      6.0600000000000005                       0
    29   1                    4.04                    4.04                    4.04
    30   1                    4.04      6.0600000000000005      6.0600000000000005
    31   1      6.0600000000000005                    4.04      6.0600000000000005
    32   1      6.0600000000000005      6.0600000000000005                    4.04
